 variables="x","y","u","v","p","r"
 zone n=      24079,e=      47588,f=fepoint,et=triangle
    0.000000E+00       -1.000000    7.818248E-01   -1.016541E-02
    8.569515E-02    9.443600E-01
   -1.729929E-02   -9.998503E-01    7.776401E-01   -1.688217E-02
    8.871759E-02    9.675274E-01
   -3.106446E-02   -9.995174E-01    7.731692E-01   -2.404631E-02
    9.186142E-02    9.913797E-01
   -4.307612E-02   -9.990718E-01    7.675050E-01   -3.311668E-02
    9.576949E-02        1.020650
   -5.508155E-02   -9.984819E-01    7.620701E-01   -4.205423E-02
    9.956007E-02        1.049017
   -6.704555E-02   -9.977499E-01    7.571736E-01   -5.091491E-02
    1.031469E-01        1.075616
   -7.887068E-02   -9.968849E-01    7.522469E-01   -5.951524E-02
    1.067153E-01        1.101937
   -9.056690E-02   -9.958904E-01    7.457028E-01   -6.782424E-02
    1.112761E-01        1.132932
   -1.022506E-01   -9.947587E-01    7.392259E-01   -7.598373E-02
    1.157603E-01        1.163471
   -1.139203E-01   -9.934899E-01    7.335571E-01   -8.413335E-02
    1.199694E-01        1.192652
   -1.256970E-01   -9.920687E-01    7.280022E-01   -9.224827E-02
    1.241191E-01        1.221568
   -1.376005E-01   -9.904878E-01    7.218257E-01   -1.002842E-01
    1.287297E-01        1.252823
   -1.495299E-01   -9.887572E-01    7.153952E-01   -1.081949E-01
    1.335145E-01        1.284925
   -1.614380E-01   -9.868829E-01    7.089886E-01   -1.159833E-01
    1.383604E-01        1.317297
   -1.733325E-01   -9.848633E-01    7.026078E-01   -1.236620E-01
    1.432596E-01        1.349919
   -1.852209E-01   -9.826969E-01    6.961408E-01   -1.312076E-01
    1.482298E-01        1.382646
   -1.970883E-01   -9.803857E-01    6.894913E-01   -1.386086E-01
    1.533672E-01        1.415797
   -2.089083E-01   -9.779353E-01    6.828446E-01   -1.458638E-01
    1.585006E-01        1.448787
   -2.206444E-01   -9.753543E-01    6.760178E-01   -1.529222E-01
    1.638200E-01        1.482320
   -2.321638E-01   -9.726767E-01    6.693457E-01   -1.597567E-01
    1.690035E-01        1.515022
   -2.434781E-01   -9.699064E-01    6.624005E-01   -1.662712E-01
    1.744465E-01        1.548742
   -2.546362E-01   -9.670369E-01    6.556087E-01   -1.726257E-01
    1.797513E-01        1.581676
   -2.656430E-01   -9.640715E-01    6.486117E-01   -1.787010E-01
    1.852708E-01        1.615247
   -2.765083E-01   -9.610115E-01    6.416867E-01   -1.846145E-01
    1.907293E-01        1.648366
   -2.872365E-01   -9.578597E-01    6.346911E-01   -1.903037E-01
    1.962874E-01        1.681705
   -2.978346E-01   -9.546175E-01    6.276571E-01   -1.957986E-01
    2.019067E-01        1.715119
   -3.083081E-01   -9.512866E-01    6.206809E-01   -2.011423E-01
    2.074977E-01        1.748270
   -3.186517E-01   -9.478719E-01    6.135807E-01   -2.062377E-01
    2.132968E-01        1.782180
   -3.288421E-01   -9.443849E-01    6.066287E-01   -2.112196E-01
    2.189550E-01        1.815323
   -3.388816E-01   -9.408290E-01    5.995094E-01   -2.159043E-01
    2.249406E-01        1.849910
   -3.488657E-01   -9.371728E-01    5.924125E-01   -2.204975E-01
    2.309242E-01        1.884453
   -3.588103E-01   -9.334105E-01    5.852455E-01   -2.249419E-01
    2.370274E-01        1.919412
   -3.687179E-01   -9.295413E-01    5.779622E-01   -2.292140E-01
    2.433113E-01        1.955043
   -3.785915E-01   -9.255639E-01    5.707271E-01   -2.334370E-01
    2.495393E-01        1.990392
   -3.884300E-01   -9.214782E-01    5.632746E-01   -2.373865E-01
    2.561429E-01        2.027303
   -3.982288E-01   -9.172861E-01    5.558761E-01   -2.412966E-01
    2.626775E-01        2.063878
   -4.079869E-01   -9.129878E-01    5.484002E-01   -2.450183E-01
    2.693846E-01        2.101063
   -4.177229E-01   -9.085745E-01    5.408818E-01   -2.486247E-01
    2.761799E-01        2.138556
   -4.274471E-01   -9.040404E-01    5.333643E-01   -2.521558E-01
    2.829848E-01        2.175990
   -4.371680E-01   -8.993799E-01    5.257863E-01   -2.555120E-01
    2.899214E-01        2.213711
   -4.469141E-01   -8.945769E-01    5.181978E-01   -2.588629E-01
    2.968415E-01        2.251391
   -4.566841E-01   -8.896289E-01    5.106575E-01   -2.620792E-01
    3.037065E-01        2.288271
   -4.665236E-01   -8.845087E-01    5.030733E-01   -2.652966E-01
    3.105813E-01        2.325188
   -4.764365E-01   -8.792089E-01    4.957142E-01   -2.685697E-01
    3.170431E-01        2.359621
   -4.861940E-01   -8.738509E-01    4.886484E-01   -2.718188E-01
    3.230884E-01        2.391663
   -4.956622E-01   -8.685154E-01    4.819216E-01   -2.749996E-01
    3.288007E-01        2.422107
   -5.046036E-01   -8.633511E-01    4.758390E-01   -2.780593E-01
    3.339154E-01        2.449669
   -5.125394E-01   -8.586637E-01    4.704446E-01   -2.807848E-01
    3.384127E-01        2.473948
   -5.195912E-01   -8.544150E-01    4.630329E-01   -2.815004E-01
    3.470032E-01        2.518820
   -5.264098E-01   -8.502310E-01    4.549502E-01   -2.815816E-01
    3.569149E-01        2.570369
   -5.331947E-01   -8.459925E-01    4.469112E-01   -2.816506E-01
    3.667618E-01        2.621612
   -5.399455E-01   -8.417000E-01    4.422306E-01   -2.837394E-01
    3.719120E-01        2.649054
   -5.476279E-01   -8.367220E-01    4.392962E-01   -2.875773E-01
    3.744137E-01        2.663285
   -5.570511E-01   -8.304782E-01    4.356947E-01   -2.922791E-01
    3.774590E-01        2.680687
   -5.685797E-01   -8.226282E-01    4.282488E-01   -2.959951E-01
    3.839307E-01        2.714421
   -5.792956E-01   -8.151175E-01    4.211616E-01   -2.993346E-01
    3.901445E-01        2.746616
   -5.893017E-01   -8.079131E-01    4.133911E-01   -3.015030E-01
    3.977005E-01        2.783848
   -5.989338E-01   -8.007985E-01    4.058840E-01   -3.036029E-01
    4.049498E-01        2.819622
   -6.082070E-01   -7.937784E-01    3.983941E-01   -3.052175E-01
    4.125292E-01        2.857928
   -6.172085E-01   -7.867996E-01    3.910920E-01   -3.067968E-01
    4.198728E-01        2.895089
   -6.259453E-01   -7.798669E-01    3.838356E-01   -3.080387E-01
    4.272759E-01        2.934586
   -6.345562E-01   -7.728767E-01    3.765980E-01   -3.091659E-01
    4.346676E-01        2.974793
   -6.430890E-01   -7.657915E-01    3.693604E-01   -3.101599E-01
    4.420532E-01        3.014434
   -6.516214E-01   -7.585443E-01    3.620310E-01   -3.109399E-01
    4.495494E-01        3.053734
   -6.602812E-01   -7.510185E-01    3.545461E-01   -3.117354E-01
    4.571723E-01        3.093703
   -6.690616E-01   -7.432070E-01    3.469689E-01   -3.122847E-01
    4.653873E-01        3.134325
   -6.778716E-01   -7.351804E-01    3.393063E-01   -3.128535E-01
    4.736332E-01        3.175210
   -6.867069E-01   -7.269344E-01    3.314850E-01   -3.130676E-01
    4.820149E-01        3.216068
   -6.954843E-01   -7.185413E-01    3.236241E-01   -3.132001E-01
    4.903785E-01        3.256744
   -7.041794E-01   -7.100221E-01    3.156755E-01   -3.130083E-01
    4.991273E-01        3.299430
   -7.127782E-01   -7.013896E-01    3.076704E-01   -3.125899E-01
    5.081235E-01        3.343465
   -7.212711E-01   -6.926529E-01    2.996708E-01   -3.120014E-01
    5.171927E-01        3.387173
   -7.296875E-01   -6.837808E-01    2.916369E-01   -3.111081E-01
    5.264851E-01        3.430701
   -7.380763E-01   -6.747172E-01    2.835258E-01   -3.101388E-01
    5.358636E-01        3.474733
   -7.464208E-01   -6.654742E-01    2.753229E-01   -3.086803E-01
    5.456737E-01        3.520745
   -7.546495E-01   -6.561281E-01    2.671231E-01   -3.072495E-01
    5.554020E-01        3.566525
   -7.627612E-01   -6.466802E-01    2.589951E-01   -3.053383E-01
    5.652823E-01        3.612393
   -7.708316E-01   -6.370389E-01    2.507899E-01   -3.034156E-01
    5.751885E-01        3.658521
   -7.788602E-01   -6.271976E-01    2.425724E-01   -3.010760E-01
    5.853509E-01        3.704611
   -7.867951E-01   -6.172142E-01    2.343374E-01   -2.986228E-01
    5.955511E-01        3.750601
   -7.946181E-01   -6.071095E-01    2.261608E-01   -2.958691E-01
    6.059723E-01        3.797729
   -8.023177E-01   -5.968972E-01    2.180249E-01   -2.929088E-01
    6.165295E-01        3.845630
   -8.098861E-01   -5.865872E-01    2.099836E-01   -2.898078E-01
    6.270186E-01        3.893058
   -8.173707E-01   -5.761121E-01    2.020356E-01   -2.864511E-01
    6.375183E-01        3.940192
   -8.248406E-01   -5.653653E-01    1.940155E-01   -2.829915E-01
    6.480992E-01        3.987756
   -8.322673E-01   -5.543746E-01    1.861390E-01   -2.792246E-01
    6.586878E-01        4.035089
   -8.395703E-01   -5.432510E-01    1.782310E-01   -2.754234E-01
    6.692901E-01        4.082655
   -8.467439E-01   -5.320007E-01    1.704641E-01   -2.710615E-01
    6.803368E-01        4.131979
   -8.537667E-01   -5.206558E-01    1.626643E-01   -2.667423E-01
    6.913154E-01        4.181236
   -8.606375E-01   -5.092180E-01    1.553606E-01   -2.623170E-01
    7.019451E-01        4.228821
   -8.674815E-01   -4.974695E-01    1.478953E-01   -2.578452E-01
    7.127056E-01        4.277239
   -8.742938E-01   -4.853971E-01    1.406620E-01   -2.530882E-01
    7.233531E-01        4.324770
   -8.810790E-01   -4.729693E-01    1.332982E-01   -2.482342E-01
    7.341238E-01        4.373037
   -8.878288E-01   -4.601740E-01    1.262132E-01   -2.432207E-01
    7.445090E-01        4.419220
   -8.945447E-01   -4.469784E-01    1.190175E-01   -2.381192E-01
    7.549496E-01        4.465837
   -9.012160E-01   -4.333701E-01    1.119136E-01   -2.324008E-01
    7.658818E-01        4.514354
   -9.077020E-01   -4.196154E-01    1.047760E-01   -2.266282E-01
    7.768447E-01        4.563280
   -9.139780E-01   -4.057637E-01    9.815176E-02   -2.207256E-01
    7.865298E-01        4.606328
   -9.200882E-01   -3.917113E-01    9.145211E-02   -2.147918E-01
    7.961215E-01        4.649683
   -9.260179E-01   -3.774795E-01    8.497409E-02   -2.080421E-01
    8.046563E-01        4.696915
   -9.316217E-01   -3.634294E-01    7.863498E-02   -2.014773E-01
    8.130207E-01        4.743406
   -9.369252E-01   -3.495300E-01    7.292501E-02   -1.950403E-01
    8.214365E-01        4.788963
   -9.420212E-01   -3.355533E-01    6.723361E-02   -1.886157E-01
    8.297347E-01        4.833155
   -9.469550E-01   -3.213660E-01    6.190585E-02   -1.819372E-01
    8.376781E-01        4.869626
   -9.519458E-01   -3.062665E-01    5.631835E-02   -1.748078E-01
    8.458514E-01        4.907437
   -9.568955E-01   -2.904323E-01    5.084576E-02   -1.670450E-01
    8.537206E-01        4.943528
   -9.615687E-01   -2.745644E-01    4.559252E-02   -1.592079E-01
    8.613255E-01        4.978808
   -9.659455E-01   -2.587454E-01    4.063470E-02   -1.513021E-01
    8.685992E-01        5.012930
   -9.700086E-01   -2.430708E-01    3.607644E-02   -1.433174E-01
    8.754076E-01        5.045330
   -9.737433E-01   -2.276488E-01    3.172757E-02   -1.354250E-01
    8.818764E-01        5.076722
   -9.771531E-01   -2.125368E-01    2.790221E-02   -1.274769E-01
    8.877335E-01        5.106127
   -9.802537E-01   -1.977439E-01    2.419760E-02   -1.196984E-01
    8.933145E-01        5.134947
   -9.830621E-01   -1.832726E-01    2.104380E-02   -1.119266E-01
    8.982947E-01        5.161758
   -9.855986E-01   -1.691018E-01    1.796651E-02   -1.043358E-01
    9.030592E-01        5.188187
   -9.878787E-01   -1.552278E-01    1.538016E-02   -9.678925E-02
    9.072782E-01        5.212883
   -9.899222E-01   -1.416125E-01    1.289000E-02   -8.938644E-02
    9.112854E-01        5.237199
   -9.917424E-01   -1.282462E-01    1.076077E-02   -8.205310E-02
    9.148505E-01        5.260288
   -9.933525E-01   -1.151122E-01    8.817991E-03   -7.481925E-02
    9.181337E-01        5.282749
   -9.947638E-01   -1.022009E-01    7.053994E-03   -6.769181E-02
    9.211347E-01        5.304729
   -9.959842E-01   -8.952934E-02    5.631998E-03   -6.063738E-02
    9.237060E-01        5.325773
   -9.970214E-01   -7.712547E-02    4.158394E-03   -5.375729E-02
    9.262159E-01        5.346894
   -9.978861E-01   -6.498776E-02    3.238205E-03   -4.694397E-02
    9.281157E-01        5.367403
   -9.985740E-01   -5.338606E-02    2.285386E-03   -4.044680E-02
    9.299281E-01        5.387500
   -9.991049E-01   -4.230258E-02    1.552287E-03   -3.423665E-02
    9.312987E-01        5.409033
   -9.994960E-01   -3.174324E-02    1.086664E-03   -2.830840E-02
    9.321711E-01        5.432255
   -9.997641E-01   -2.171721E-02    5.884502E-04   -2.268632E-02
    9.329981E-01        5.454711
   -9.999256E-01   -1.220177E-02    3.181217E-04   -1.725497E-02
    9.339437E-01        5.479753
   -9.999956E-01   -2.979193E-03    2.278134E-04   -1.190463E-02
    9.350024E-01        5.507313
   -9.999812E-01    6.127962E-03    9.242344E-05   -6.622076E-03
    9.360502E-01        5.534895
   -9.998857E-01    1.512086E-02    3.345170E-05   -1.422455E-03
    9.366289E-01        5.551885
   -9.997098E-01    2.408702E-02    2.685215E-04    3.717502E-03
    9.359130E-01        5.539237
   -9.994464E-01    3.327039E-02    4.639039E-04    8.983387E-03
    9.351802E-01        5.526636
   -9.990889E-01    4.267662E-02    6.162004E-04    1.437855E-02
    9.344301E-01        5.514104
   -9.986308E-01    5.231147E-02    1.180889E-03    1.955294E-02
    9.335818E-01        5.494024
   -9.980795E-01    6.194675E-02    1.701061E-03    2.473000E-02
    9.327316E-01        5.474303
   -9.974349E-01    7.157953E-02    2.172507E-03    2.991127E-02
    9.318802E-01        5.455015
   -9.966971E-01    8.120894E-02    2.992183E-03    3.496045E-02
    9.307369E-01        5.437601
   -9.958496E-01    9.101389E-02    3.831670E-03    4.009252E-02
    9.295312E-01        5.420479
   -9.948844E-01    1.010198E-01    4.638073E-03    4.533942E-02
    9.282979E-01        5.403440
   -9.937949E-01    1.112285E-01    5.805140E-03    5.058764E-02
    9.267046E-01        5.386310
   -9.925784E-01    1.216060E-01    7.010543E-03    5.591616E-02
    9.250205E-01        5.369306
   -9.912302E-01    1.321464E-01    8.180912E-03    6.134337E-02
    9.233050E-01        5.352494
   -9.897443E-01    1.428503E-01    9.792680E-03    6.675474E-02
    9.211727E-01        5.334907
   -9.881159E-01    1.537106E-01    1.137934E-02    7.226419E-02
    9.189960E-01        5.317509
   -9.863392E-01    1.647274E-01    1.306253E-02    7.785618E-02
    9.166763E-01        5.299933
   -9.844080E-01    1.759001E-01    1.509310E-02    8.349955E-02
    9.140124E-01        5.281403
   -9.823166E-01    1.872275E-01    1.709277E-02    8.924907E-02
    9.112994E-01        5.263090
   -9.800585E-01    1.987093E-01    1.941117E-02    9.508278E-02
    9.082326E-01        5.243637
   -9.776268E-01    2.103469E-01    2.189455E-02    1.010175E-01
    9.049393E-01        5.223630
   -9.750146E-01    2.221407E-01    2.443096E-02    1.070656E-01
    9.015083E-01        5.203486
   -9.722144E-01    2.340921E-01    2.743992E-02    1.132172E-01
    8.975511E-01        5.181421
   -9.692156E-01    2.462137E-01    3.042661E-02    1.195020E-01
    8.935121E-01        5.159508
   -9.660101E-01    2.585044E-01    3.384711E-02    1.258901E-01
    8.889628E-01        5.135913
   -9.625915E-01    2.709569E-01    3.740678E-02    1.324055E-01
    8.841703E-01        5.111811
   -9.589523E-01    2.835674E-01    4.121897E-02    1.390006E-01
    8.790079E-01        5.086474
   -9.550983E-01    2.962891E-01    4.535054E-02    1.456392E-01
    8.734080E-01        5.059572
   -9.510417E-01    3.090625E-01    4.956769E-02    1.523333E-01
    8.676115E-01        5.032244
   -9.467840E-01    3.218695E-01    5.423209E-02    1.589790E-01
    8.612775E-01        5.002487
   -9.423415E-01    3.346528E-01    5.884165E-02    1.656759E-01
    8.548820E-01        4.973062
   -9.377177E-01    3.473981E-01    6.397490E-02    1.721804E-01
    8.478388E-01        4.940103
   -9.330555E-01    3.597325E-01    6.888740E-02    1.785457E-01
    8.409606E-01        4.908530
   -9.283665E-01    3.716659E-01    7.402090E-02    1.844697E-01
    8.334872E-01        4.870846
   -9.235860E-01    3.833915E-01    7.911292E-02    1.902910E-01
    8.259144E-01        4.832425
   -9.187028E-01    3.949496E-01    8.439817E-02    1.960292E-01
    8.184428E-01        4.791528
   -9.136978E-01    4.063942E-01    8.988816E-02    2.017147E-01
    8.110324E-01        4.748080
   -9.085503E-01    4.177755E-01    9.540032E-02    2.073719E-01
    8.035287E-01        4.705733
   -9.032369E-01    4.291423E-01    1.012845E-01    2.127955E-01
    7.956533E-01        4.667249
   -8.976412E-01    4.407269E-01    1.072539E-01    2.183887E-01
    7.875421E-01        4.628061
   -8.917521E-01    4.525242E-01    1.137262E-01    2.237772E-01
    7.776995E-01        4.582490
   -8.857090E-01    4.642408E-01    1.201887E-01    2.291499E-01
    7.676232E-01        4.536437
   -8.795332E-01    4.758375E-01    1.268713E-01    2.342376E-01
    7.577388E-01        4.489867
   -8.732123E-01    4.873401E-01    1.336256E-01    2.392151E-01
    7.479100E-01        4.443151
   -8.667409E-01    4.987587E-01    1.405718E-01    2.440849E-01
    7.378029E-01        4.396001
   -8.601264E-01    5.100809E-01    1.477155E-01    2.488379E-01
    7.274120E-01        4.348401
   -8.533770E-01    5.212941E-01    1.549231E-01    2.534947E-01
    7.168911E-01        4.300621
   -8.465236E-01    5.323512E-01    1.623374E-01    2.578864E-01
    7.061572E-01        4.252256
   -8.396367E-01    5.431485E-01    1.696417E-01    2.622198E-01
    6.954975E-01        4.204527
   -8.327125E-01    5.537057E-01    1.772969E-01    2.663811E-01
    6.845841E-01        4.155308
   -8.256555E-01    5.641747E-01    1.849110E-01    2.705667E-01
    6.736102E-01        4.106163
   -8.184668E-01    5.745537E-01    1.927062E-01    2.743000E-01
    6.629058E-01        4.058031
   -8.111433E-01    5.848475E-01    2.005100E-01    2.779738E-01
    6.521892E-01        4.010078
   -8.036860E-01    5.950536E-01    2.085103E-01    2.814507E-01
    6.413747E-01        3.961167
   -7.960992E-01    6.051662E-01    2.166264E-01    2.848105E-01
    6.304706E-01        3.911630
   -7.883850E-01    6.151821E-01    2.248052E-01    2.879957E-01
    6.196049E-01        3.862694
   -7.805545E-01    6.250877E-01    2.330941E-01    2.908903E-01
    6.088487E-01        3.814737
   -7.726259E-01    6.348616E-01    2.413640E-01    2.937065E-01
    5.981004E-01        3.766656
   -7.646247E-01    6.444758E-01    2.497175E-01    2.961014E-01
    5.875594E-01        3.717659
   -7.566572E-01    6.538118E-01    2.578985E-01    2.984724E-01
    5.771378E-01        3.669511
   -7.487292E-01    6.628760E-01    2.659177E-01    3.002152E-01
    5.671884E-01        3.621073
   -7.407020E-01    6.718337E-01    2.739171E-01    3.019333E-01
    5.571957E-01        3.572499
   -7.325676E-01    6.806943E-01    2.819146E-01    3.032989E-01
    5.475981E-01        3.528072
   -7.241912E-01    6.895992E-01    2.900410E-01    3.044973E-01
    5.380221E-01        3.485119
   -7.154945E-01    6.986184E-01    2.983790E-01    3.055286E-01
    5.282310E-01        3.439854
   -7.067029E-01    7.075105E-01    3.067228E-01    3.062726E-01
    5.185223E-01        3.392967
   -6.981554E-01    7.159463E-01    3.147256E-01    3.068909E-01
    5.091978E-01        3.347231
   -6.897978E-01    7.240021E-01    3.224298E-01    3.071021E-01
    5.004075E-01        3.300817
   -6.814245E-01    7.318884E-01    3.300699E-01    3.073169E-01
    4.916210E-01        3.254633
   -6.730388E-01    7.396072E-01    3.377059E-01    3.072349E-01
    4.830102E-01        3.209618
   -6.645752E-01    7.472214E-01    3.453519E-01    3.071128E-01
    4.743573E-01        3.164548
   -6.560255E-01    7.547387E-01    3.530318E-01    3.068168E-01
    4.658144E-01        3.120659
   -6.474446E-01    7.621125E-01    3.606989E-01    3.063644E-01
    4.574146E-01        3.078049
   -6.388847E-01    7.693025E-01    3.683081E-01    3.058755E-01
    4.490737E-01        3.035688
   -6.303318E-01    7.763259E-01    3.759574E-01    3.051884E-01
    4.409049E-01        2.993490
   -6.217017E-01    7.832541E-01    3.836231E-01    3.044975E-01
    4.326618E-01        2.951007
   -6.129955E-01    7.900864E-01    3.912718E-01    3.035246E-01
    4.246952E-01        2.910675
   -6.041340E-01    7.968827E-01    3.990027E-01    3.024592E-01
    4.166772E-01        2.870354
   -5.950935E-01    8.036565E-01    4.066428E-01    3.011009E-01
    4.088321E-01        2.830816
   -5.858277E-01    8.104357E-01    4.141695E-01    2.993507E-01
    4.012284E-01        2.792356
   -5.762736E-01    8.172569E-01    4.217208E-01    2.973880E-01
    3.936653E-01        2.754009
   -5.663345E-01    8.241755E-01    4.287443E-01    2.946008E-01
    3.871367E-01        2.720113
   -5.555865E-01    8.314587E-01    4.359758E-01    2.913584E-01
    3.804269E-01        2.685300
   -5.443249E-01    8.388745E-01    4.407850E-01    2.860627E-01
    3.764942E-01        2.664158
   -5.355538E-01    8.445011E-01    4.445222E-01    2.819346E-01
    3.734005E-01        2.647642
   -5.287434E-01    8.487817E-01    4.515677E-01    2.812573E-01
    3.649449E-01        2.604369
   -5.219364E-01    8.529844E-01    4.587058E-01    2.806275E-01
    3.563361E-01        2.560379
   -5.150958E-01    8.571326E-01    4.658740E-01    2.799801E-01
    3.476747E-01        2.516174
   -5.082224E-01    8.612259E-01    4.718466E-01    2.784159E-01
    3.415711E-01        2.484213
   -5.009524E-01    8.654748E-01    4.778635E-01    2.765403E-01
    3.357250E-01        2.453362
   -4.931718E-01    8.699319E-01    4.843016E-01    2.745326E-01
    3.294365E-01        2.420242
   -4.848418E-01    8.746018E-01    4.908523E-01    2.720434E-01
    3.235125E-01        2.389161
   -4.758548E-01    8.795238E-01    4.978561E-01    2.693010E-01
    3.172260E-01        2.356263
   -4.661384E-01    8.847118E-01    5.054909E-01    2.662904E-01
    3.103389E-01        2.320095
   -4.559347E-01    8.900132E-01    5.136176E-01    2.630493E-01
    3.029817E-01        2.281208
   -4.457241E-01    8.951704E-01    5.217451E-01    2.597609E-01
    2.955925E-01        2.242113
   -4.355344E-01    9.001721E-01    5.298601E-01    2.562988E-01
    2.882401E-01        2.202677
   -4.254923E-01    9.049620E-01    5.378585E-01    2.528685E-01
    2.809561E-01        2.163698
   -4.155991E-01    9.095479E-01    5.457841E-01    2.493255E-01
    2.737424E-01        2.124264
   -4.056738E-01    9.140179E-01    5.537491E-01    2.457337E-01
    2.664655E-01        2.084490
   -3.957003E-01    9.183797E-01    5.615226E-01    2.419015E-01
    2.594943E-01        2.045959
   -3.855796E-01    9.226746E-01    5.692479E-01    2.378388E-01
    2.526568E-01        2.007859
   -3.752362E-01    9.269292E-01    5.770410E-01    2.335727E-01
    2.457972E-01        1.969421
   -3.646913E-01    9.311285E-01    5.846811E-01    2.289563E-01
    2.392332E-01        1.931866
   -3.540149E-01    9.352398E-01    5.924277E-01    2.242392E-01
    2.325495E-01        1.893699
   -3.432080E-01    9.392595E-01    6.000625E-01    2.192262E-01
    2.261053E-01        1.855960
   -3.325056E-01    9.431013E-01    6.076469E-01    2.142160E-01
    2.196742E-01        1.818382
   -3.219087E-01    9.467707E-01    6.150072E-01    2.090770E-01
    2.135228E-01        1.781847
   -3.113649E-01    9.502904E-01    6.223125E-01    2.038769E-01
    2.074254E-01        1.745507
   -3.008617E-01    9.536678E-01    6.294826E-01    1.985689E-01
    2.014937E-01        1.709823
   -2.903634E-01    9.569165E-01    6.365325E-01    1.931222E-01
    1.957253E-01        1.674728
   -2.798299E-01    9.600496E-01    6.435928E-01    1.875804E-01
    1.899456E-01        1.639541
   -2.692624E-01    9.630669E-01    6.503974E-01    1.818245E-01
    1.844789E-01        1.605808
   -2.586597E-01    9.659685E-01    6.572666E-01    1.759868E-01
    1.789392E-01        1.571669
   -2.480231E-01    9.687541E-01    6.639222E-01    1.699671E-01
    1.736679E-01        1.538719
   -2.373267E-01    9.714299E-01    6.705878E-01    1.638170E-01
    1.683990E-01        1.505690
   -2.265643E-01    9.739962E-01    6.771672E-01    1.575109E-01
    1.632331E-01        1.473042
   -2.157233E-01    9.764546E-01    6.836318E-01    1.510237E-01
    1.582051E-01        1.440922
   -2.047876E-01    9.788064E-01    6.901540E-01    1.443893E-01
    1.531296E-01        1.408436
   -1.937549E-01    9.810500E-01    6.964649E-01    1.375495E-01
    1.483257E-01        1.376965
   -1.826065E-01    9.831861E-01    7.028916E-01    1.305439E-01
    1.434083E-01        1.344814
   -1.713423E-01    9.852116E-01    7.091253E-01    1.233330E-01
    1.387442E-01        1.313779
   -1.599631E-01    9.871230E-01    7.154148E-01    1.159349E-01
    1.340361E-01        1.282393
   -1.484685E-01    9.889171E-01    7.215267E-01    1.083339E-01
    1.295075E-01        1.251806
   -1.368438E-01    9.905927E-01    7.275579E-01    1.005164E-01
    1.250616E-01        1.221507
   -1.250783E-01    9.921468E-01    7.336060E-01    9.249326E-02
    1.206495E-01        1.191154
   -1.132127E-01    9.935708E-01    7.395868E-01    8.428725E-02
    1.163781E-01        1.161259
   -1.013138E-01    9.948545E-01    7.455739E-01    7.593228E-02
    1.120846E-01        1.131320
   -8.938699E-02    9.959970E-01    7.514037E-01    6.745522E-02
    1.079259E-01        1.102570
   -7.744730E-02    9.969965E-01    7.572639E-01    5.882401E-02
    1.037175E-01        1.073447
   -6.549394E-02    9.978530E-01    7.625522E-01    5.008413E-02
    9.997939E-02        1.045931
   -5.347847E-02    9.985690E-01    7.679273E-01    4.113230E-02
    9.614732E-02        1.017806
   -4.140255E-02    9.991425E-01    7.727740E-01    3.309214E-02
    9.277645E-02    9.929137E-01
   -2.913559E-02    9.995755E-01    7.776729E-01    2.490792E-02
    8.935215E-02    9.676782E-01
   -1.665748E-02    9.998612E-01    7.831104E-01    1.374703E-02
    8.571342E-02    9.397246E-01
   -8.329029E-03    9.999653E-01    7.863153E-01    8.428027E-03
    8.355538E-02    9.231963E-01
    0.000000E+00        1.000000    7.891380E-01    5.158862E-03
    8.161452E-02    9.085648E-01
    0.000000E+00        1.013910    7.828313E-01    2.015269E-02
    8.829528E-02    9.515591E-01
    0.000000E+00        1.027182    7.767373E-01    3.438937E-02
    9.465852E-02    9.926322E-01
    0.000000E+00        1.039918    7.701383E-01    4.737078E-02
    1.006563E-01        1.032549
    0.000000E+00        1.052832    7.634541E-01    6.038389E-02
    1.067205E-01        1.072814
    0.000000E+00        1.065945    7.567956E-01    7.084328E-02
    1.125562E-01        1.109848
    0.000000E+00        1.079582    7.499711E-01    8.156194E-02
    1.185814E-01        1.148034
    0.000000E+00        1.093770    7.440413E-01    9.085638E-02
    1.243389E-01        1.183930
    0.000000E+00        1.108607    7.379510E-01    1.002251E-01
    1.302671E-01        1.220744
    0.000000E+00        1.124022    7.319742E-01    1.088483E-01
    1.361337E-01        1.256701
    0.000000E+00        1.139722    7.259433E-01    1.171498E-01
    1.420625E-01        1.292885
    0.000000E+00        1.155640    7.198815E-01    1.251148E-01
    1.480305E-01        1.329162
    0.000000E+00        1.171714    7.141359E-01    1.323471E-01
    1.538548E-01        1.364084
    0.000000E+00        1.188116    7.083874E-01    1.394082E-01
    1.597144E-01        1.399119
    0.000000E+00        1.204871    7.026951E-01    1.458774E-01
    1.654950E-01        1.433695
    0.000000E+00        1.221898    6.971096E-01    1.519705E-01
    1.711864E-01        1.467792
    0.000000E+00        1.239282    6.915689E-01    1.578001E-01
    1.768483E-01        1.501758
    0.000000E+00        1.257096    6.861728E-01    1.629372E-01
    1.822929E-01        1.534860
    0.000000E+00        1.275306    6.807872E-01    1.678561E-01
    1.877083E-01        1.568010
    0.000000E+00        1.293907    6.754407E-01    1.724892E-01
    1.930626E-01        1.601063
    0.000000E+00        1.312896    6.702373E-01    1.767514E-01
    1.983135E-01        1.633958
    0.000000E+00        1.332176    6.651112E-01    1.808541E-01
    2.035227E-01        1.666870
    0.000000E+00        1.351728    6.600792E-01    1.847822E-01
    2.086720E-01        1.699698
    0.000000E+00        1.371542    6.552699E-01    1.883631E-01
    2.136000E-01        1.731569
    0.000000E+00        1.391713    6.506001E-01    1.917665E-01
    2.183972E-01        1.762922
    0.000000E+00        1.412265    6.460645E-01    1.950230E-01
    2.230765E-01        1.793807
    0.000000E+00        1.433226    6.417204E-01    1.981182E-01
    2.275952E-01        1.823982
    0.000000E+00        1.454633    6.376649E-01    2.011522E-01
    2.319774E-01        1.853435
    0.000000E+00        1.476493    6.338339E-01    2.042415E-01
    2.363517E-01        1.882900
    0.000000E+00        1.498748    6.302750E-01    2.073666E-01
    2.406910E-01        1.912197
    0.000000E+00        1.521367    6.270357E-01    2.104790E-01
    2.449460E-01        1.941023
    0.000000E+00        1.544389    6.241288E-01    2.134584E-01
    2.489436E-01        1.968202
    0.000000E+00        1.568032    6.213731E-01    2.164330E-01
    2.528532E-01        1.994978
    0.000000E+00        1.592255    6.187993E-01    2.194326E-01
    2.567192E-01        2.021590
    0.000000E+00        1.616972    6.164395E-01    2.224723E-01
    2.605484E-01        2.048177
    0.000000E+00        1.642056    6.143170E-01    2.255500E-01
    2.643014E-01        2.074677
    0.000000E+00        1.667383    6.124381E-01    2.286797E-01
    2.679408E-01        2.100705
    0.000000E+00        1.693045    6.108131E-01    2.318877E-01
    2.714400E-01        2.126289
    0.000000E+00        1.719090    6.094341E-01    2.350782E-01
    2.747832E-01        2.151523
    0.000000E+00        1.745576    6.082662E-01    2.382105E-01
    2.780561E-01        2.176846
    0.000000E+00        1.772379    6.072888E-01    2.412540E-01
    2.813345E-01        2.202664